LAMMPS (12 Apr 2013)
# 3d Lennard-Jones melt

units		lj
atom_style	atomic

variable 	t equal 0.71

lattice		fcc 0.8442
Lattice spacing in x,y,z = 1.6796 1.6796 1.6796
region		box block 0 10 0 10 0 10
create_box	1 box
Created orthogonal box = (0 0 0) to (16.796 16.796 16.796)
  1 by 1 by 1 MPI processor grid
create_atoms	1 box
Created 4000 atoms
mass		1 1.0

velocity	all create $t 87287
velocity	all create 0.70999999999999996447 87287

pair_style	lj/cut 2.5
pair_coeff	1 1 1.0 1.0 2.5

fix		1 all nvt temp $t $t 1
fix		1 all nvt temp 0.70999999999999996447 $t 1
fix		1 all nvt temp 0.70999999999999996447 0.70999999999999996447 1
dump		1 all xyz 100 dump.lammps
thermo		100

run		10000
Memory usage per processor = 3.02915 Mbytes
Step Temp E_pair E_mol TotEng Press 
       0         0.71   -6.7733681            0   -5.7086343   -5.6360851 
     100    0.3819252   -6.2588305            0   -5.6860859   -2.7669141 
     200   0.40844729   -6.2459675            0   -5.6334498   -2.7216545 
     300   0.44051079    -6.231351            0     -5.57075   -2.5975858 
     400   0.46192285   -6.1955067            0   -5.5027956   -2.3862458 
     500   0.49737567   -6.1739486            0   -5.4280716   -2.2448171 
     600   0.52029319   -6.1309548            0   -5.3507101   -1.9872258 
     700   0.54551208   -6.0889237            0   -5.2708601   -1.7474237 
     800   0.58165878   -6.0621388            0   -5.1898687   -1.5620759 
     900   0.60504693   -6.0171138            0   -5.1097703   -1.2907206 
    1000    0.6335028   -5.9809275            0   -5.0309109    -1.077948 
    1100   0.65899557   -5.9452647            0   -4.9570185  -0.84695099 
    1200   0.68468837   -5.9143689            0   -4.8875931  -0.65245938 
    1300    0.6990519   -5.8749405            0   -4.8266248  -0.44862021 
    1400   0.71710334   -5.8503488            0   -4.7749627  -0.29847501 
    1500   0.72836096   -5.8293593            0    -4.737091  -0.12866255 
    1600     0.727127   -5.8038263            0   -4.7134085 0.0017458049 
    1700   0.71212925   -5.7702169            0   -4.7022901   0.16515893 
    1800   0.71314556    -5.768382            0   -4.6989311   0.22585721 
    1900   0.71409379   -5.7688106            0   -4.6979377   0.24671989 
    2000   0.69863587   -5.7410992            0   -4.6934074   0.35884576 
    2100   0.70605868   -5.7432017            0   -4.6843784   0.35412134 
    2200   0.69824421   -5.7159238            0   -4.6688193   0.48796258 
    2300   0.70760334   -5.7103527            0    -4.649213   0.55056083 
    2400   0.70599612   -5.6883094            0     -4.62958   0.63994014 
    2500   0.70985086    -5.672918            0   -4.6084079   0.72094085 
    2600   0.71829594   -5.6668288            0   -4.5896543   0.75224294 
    2700   0.73482768    -5.678371            0   -4.5764051   0.69868191 
    2800   0.73548075   -5.6767469            0   -4.5738016   0.74191087 
    2900   0.72655728   -5.6705479            0   -4.5809845   0.76536802 
    3000   0.71172591   -5.6602179            0   -4.5928959   0.82801001 
    3100   0.70317709   -5.6603037            0   -4.6058018   0.78640736 
    3200   0.70769622   -5.6765466            0   -4.6152676   0.70236288 
    3300   0.70619592   -5.6788082            0   -4.6197792   0.69303934 
    3400   0.69293968   -5.6549625            0   -4.6158128   0.78073513 
    3500    0.7103162   -5.6682876            0   -4.6030796   0.76423418 
    3600   0.71292725   -5.6558901            0   -4.5867666   0.83105107 
    3700   0.71700872   -5.6479873            0   -4.5727431   0.84381549 
    3800   0.72580165   -5.6547365            0   -4.5663062   0.80043767 
    3900   0.72719073   -5.6587125            0   -4.5681991   0.81514885 
    4000   0.71131202   -5.6462636            0   -4.5795623   0.89330333 
    4100   0.71075899    -5.657035            0   -4.5911631   0.78784116 
    4200   0.70196803   -5.6549745            0   -4.6022857   0.82104866 
    4300   0.70833687   -5.6716391            0   -4.6093994   0.72515412 
    4400   0.69295891   -5.6513362            0   -4.6121577   0.81344837 
    4500   0.70943038   -5.6717939            0   -4.6079144   0.74023188 
    4600   0.71592244   -5.6736292            0   -4.6000141   0.71465886 
    4700   0.71147563   -5.6547269            0   -4.5877803   0.81980254 
    4800   0.71012928   -5.6408209            0   -4.5758933   0.91038392 
    4900    0.7220859   -5.6511161            0    -4.568258   0.83148544 
    5000   0.71968826   -5.6454958            0   -4.5662333   0.84675874 
    5100   0.71336687   -5.6382887            0   -4.5685059   0.92368548 
    5200   0.71169471    -5.638693            0   -4.5714178   0.91034679 
    5300   0.70590341   -5.6365989            0   -4.5780085   0.90347583 
    5400   0.71336264   -5.6556385            0    -4.585862   0.82301061 
    5500   0.71211892   -5.6623276            0   -4.5944162   0.77901688 
    5600   0.70142594   -5.6549631            0   -4.6030872   0.82946383 
    5700   0.71713374   -5.6824942            0   -4.6070625   0.66976824 
    5800   0.71654802   -5.6799549            0   -4.6054016   0.69500904 
    5900   0.71467819   -5.6693972            0   -4.5976479   0.75982025 
    6000   0.71065038   -5.6543617            0   -4.5886526   0.81138115 
    6100   0.71293469   -5.6502236            0   -4.5810889   0.83905379 
    6200   0.70925764   -5.6394257            0   -4.5758052   0.91043389 
    6300   0.72072956   -5.6580501            0    -4.577226   0.80992327 
    6400   0.72047292   -5.6638973            0   -4.5834581   0.75604046 
    6500    0.7045348   -5.6512962            0   -4.5947582   0.83862113 
    6600    0.6975852   -5.6508647            0   -4.6047485   0.82664149 
    6700   0.69818584   -5.6569286            0   -4.6099116    0.7855217 
    6800   0.70021052   -5.6582796            0   -4.6082264   0.81029815 
    6900   0.70583251   -5.6604349            0   -4.6019508   0.81406065 
    7000   0.71121946   -5.6572062            0   -4.5906438   0.81082955 
    7100   0.70911023   -5.6432158            0   -4.5798164   0.88892759 
    7200   0.71342959   -5.6407865            0   -4.5709097   0.87458628 
    7300   0.70817611   -5.6253163            0   -4.5633177   0.98386384 
    7400   0.72218516   -5.6424157            0   -4.5594088   0.90288222 
    7500   0.72404276   -5.6441985            0   -4.5584058   0.88733922 
    7600   0.71133835   -5.6321522            0   -4.5654114   0.95339378 
    7700      0.70943   -5.6407239            0    -4.576845   0.91020431 
    7800    0.7077274    -5.649915            0   -4.5885893   0.84005419 
    7900   0.70235134   -5.6541148            0   -4.6008511   0.79067226 
    8000   0.69788526   -5.6556266            0   -4.6090604   0.80590736 
    8100   0.69670765   -5.6570608            0   -4.6122606   0.76655354 
    8200   0.69913547   -5.6542204            0   -4.6057793   0.80574099 
    8300   0.71298546   -5.6623369            0   -4.5931261    0.7649784 
    8400   0.71624892     -5.65263            0   -4.5785252   0.86777301 
    8500   0.73277289   -5.6661653            0   -4.5672807   0.78770037 
    8600   0.71175216    -5.628869            0   -4.5615077   0.95707176 
    8700   0.71838997    -5.637792            0   -4.5604765   0.90495364 
    8800   0.72179384   -5.6460106            0   -4.5635905   0.88204008 
    8900   0.71215651   -5.6421907            0    -4.574223   0.87598423 
    9000   0.71466368   -5.6608388            0   -4.5891113    0.7832361 
    9100   0.70710615   -5.6638636            0   -4.6034696   0.76564003 
    9200   0.69138261   -5.6506548            0   -4.6138401   0.84062273 
    9300    0.6986981   -5.6628849            0   -4.6150998   0.78070689 
    9400   0.71270379   -5.6761302            0   -4.6073418    0.6991297 
    9500   0.69395235   -5.6362526            0   -4.5955843   0.89934037 
    9600   0.71995213   -5.6606394            0   -4.5809812   0.80640677 
    9700   0.71740203    -5.645648            0    -4.569814   0.85412756 
    9800   0.72031563   -5.6457827            0   -4.5655793   0.86377826 
    9900   0.72411603   -5.6539143            0   -4.5680118    0.8620253 
   10000   0.72031252   -5.6588472            0   -4.5786486   0.78962573 
Loop time of 39.3418 on 1 procs for 10000 steps with 4000 atoms

Pair  time (%) = 28.6908 (72.9271)
Neigh time (%) = 8.40886 (21.3738)
Comm  time (%) = 0.596034 (1.51501)
Outpt time (%) = 0.451403 (1.14739)
Other time (%) = 1.19469 (3.0367)

Nlocal:    4000 ave 4000 max 4000 min
Histogram: 1 0 0 0 0 0 0 0 0 0
Nghost:    5491 ave 5491 max 5491 min
Histogram: 1 0 0 0 0 0 0 0 0 0
Neighs:    149892 ave 149892 max 149892 min
Histogram: 1 0 0 0 0 0 0 0 0 0

Total # of neighbors = 149892
Ave neighs/atom = 37.473
Neighbor list builds = 994
Dangerous builds = 957
